3
Lattice="10.0 0.0 0.0 0.0 10.0 0.0 0.0 0.0 10.0" Properties=species:S:1:pos:R:3:forces:R:3 pbc="T T T" energy=-14.50
O 0.00 0.00 0.00 0.10 0.00 0.00
H 0.80 0.00 0.00 -0.05 0.00 0.00
H -0.20 0.78 0.00 -0.05 0.00 0.00
3
Lattice="10.0 0.0 0.0 0.0 10.0 0.0 0.0 0.0 10.0" Properties=species:S:1:pos:R:3:forces:R:3 pbc="T T T" energy=-14.48
O 0.01 0.00 0.00 0.09 0.01 0.00
H 0.81 0.00 0.00 -0.04 0.00 0.00
H -0.20 0.79 0.00 -0.05 -0.01 0.00
3
Lattice="10.0 0.0 0.0 0.0 10.0 0.0 0.0 0.0 10.0" Properties=species:S:1:pos:R:3:forces:R:3 pbc="T T T" energy=-14.52
O 0.00 0.01 0.00 0.11 0.00 0.00
H 0.79 0.00 0.00 -0.06 0.00 0.00
H -0.21 0.78 0.00 -0.05 0.00 0.00
