2
Lattice="5 0 0 0 5 0 0 0 5" energy=-1.234 Properties=species:S:1:pos:R:3:force:R:3
H 0.000 0.000 0.000 0.010 -0.020 0.000
H 0.740 0.000 0.000 -0.010 0.020 0.000
