3
Lattice="5 0 0 0 5 0 0 0 5" pbc="T T T" Properties=species:S:1:pos:R:3:REF_forces:R:3 REF_energy=-76.123 REF_stress="0.5 0.4 0.3 0.01 0.02 0.03" config_type=Default
O 0.000 0.000 0.000 0.020 -0.010 0.000
H 0.758 0.000 0.504 -0.010 0.005 0.000
H -0.758 0.000 0.504 -0.010 0.005 0.000
