1
Properties=species:S:1:pos:R:3:forces:R:3 frame_id=0 subset=monomers atomization_energy=0.0 energy=-12.3507999266963 pbc="F F F"
H        0.00000000       0.00000000       0.00000000       0.00000000       0.00000000       0.00000000
2
Properties=species:S:1:pos:R:3:forces:R:3 frame_id=1096 subset=dimers atomization_energy=0.10621794818553099 energy=-2795.34888039216 pbc="F F F"
He       0.00000000       0.00000000       0.00000000      -0.41631434      -0.00000000       0.00000000
F        2.03291667       0.00000000       0.00000000       0.41631434      -0.00000000       0.00000000
2
Properties=species:S:1:pos:R:3:forces:R:3 frame_id=2373 subset=dimers atomization_energy=0.9417321518994868 energy=-81942.7127398924 pbc="F F F"
Li       0.00000000       0.00000000       0.00000000      -4.01930591      -0.00000000      -0.00000000
Rb       2.02083333       0.00000000       0.00000000       4.01930591       0.00000000       0.00000000
2
Properties=species:S:1:pos:R:3:forces:R:3 frame_id=3715 subset=dimers atomization_energy=-1.3359882718650624 energy=-422517.990496748 pbc="F F F"
Be       0.00000000       0.00000000       0.00000000      -1.31166073       0.00000000      -0.00000000
Hf       2.29777778       0.00000000       0.00000000       1.31166073       0.00000000       0.00000000
2
Properties=species:S:1:pos:R:3:forces:R:3 frame_id=5054 subset=dimers atomization_energy=-1.8556836076695618 energy=-5453.90982423398 pbc="F F F"
C        0.00000000       0.00000000       0.00000000      -2.68580480      -0.00000000      -0.00000000
Na       2.04013889       0.00000000       0.00000000       2.68580480       0.00000000      -0.00000000
2
Properties=species:S:1:pos:R:3:forces:R:3 frame_id=6393 subset=dimers atomization_energy=-0.09646324790082872 energy=-163621.106352671 pbc="F F F"
N        0.00000000       0.00000000       0.00000000     -32.50456905      -0.00000000       0.00000000
In       1.45000000       0.00000000       0.00000000      32.50456905       0.00000000      -0.00000000
2
Properties=species:S:1:pos:R:3:forces:R:3 frame_id=7766 subset=dimers atomization_energy=-6.793794618570246 energy=-779225.129838153 pbc="F F F"
O        0.00000000       0.00000000       0.00000000       5.87648647       0.00000000       0.00000000
Pa       2.79791667       0.00000000       0.00000000      -5.87648647      -0.00000000       0.00000000
2
Properties=species:S:1:pos:R:3:forces:R:3 frame_id=9225 subset=dimers atomization_energy=0.36087982953176834 energy=-173890.413825811 pbc="F F F"
Ne       0.00000000       0.00000000       0.00000000      -1.61657249       0.00000000       0.00000000
Sn       2.26722222       0.00000000       0.00000000       1.61657249       0.00000000       0.00000000
2
Properties=species:S:1:pos:R:3:forces:R:3 frame_id=10608 subset=dimers atomization_energy=-2.641587291844189 energy=-902772.934928547 pbc="F F F"
Na       0.00000000       0.00000000       0.00000000       0.12378242      -0.00000000      -0.00000000
Cm       4.26111111       0.00000000       0.00000000      -0.12378242       0.00000000      -0.00000000
2
Properties=species:S:1:pos:R:3:forces:R:3 frame_id=11997 subset=dimers atomization_energy=-0.015498188586207107 energy=-212479.178578357 pbc="F F F"
Al       0.00000000       0.00000000       0.00000000      -0.23018723       0.00000000      -0.00000000
Xe       3.22222222       0.00000000       0.00000000       0.23018723       0.00000000      -0.00000000
2
Properties=species:S:1:pos:R:3:forces:R:3 frame_id=13518 subset=dimers atomization_energy=-1.5777838223511935 energy=-54568.406152263 pbc="F F F"
P        0.00000000       0.00000000       0.00000000       1.54343074      -0.00000000       0.00000000
Cu       3.39444444       0.00000000       0.00000000      -1.54343074       0.00000000      -0.00000000
2
Properties=species:S:1:pos:R:3:forces:R:3 frame_id=15006 subset=dimers atomization_energy=-6.472788545070216 energy=-788060.997227761 pbc="F F F"
S        0.00000000       0.00000000       0.00000000       4.69084579       0.00000000      -0.00000000
Pa       2.99625000       0.00000000       0.00000000      -4.69084579       0.00000000      -0.00000000
2
Properties=species:S:1:pos:R:3:forces:R:3 frame_id=16408 subset=dimers atomization_energy=-0.786380692909006 energy=-281460.607651325 pbc="F F F"
Ar       0.00000000       0.00000000       0.00000000      -0.14140074       0.00000000       0.00000000
Nd       3.85486111       0.00000000       0.00000000       0.14140074       0.00000000       0.00000000
2
Properties=species:S:1:pos:R:3:forces:R:3 frame_id=17694 subset=dimers atomization_energy=-1.2728685578040313 energy=-41857.1013339565 pbc="F F F"
Ca       0.00000000       0.00000000       0.00000000      -0.88158775       0.00000000       0.00000000
Ti       2.27138889       0.00000000       0.00000000       0.88158775       0.00000000       0.00000000
2
Properties=species:S:1:pos:R:3:forces:R:3 frame_id=19013 subset=dimers atomization_energy=-0.7415105421678163 energy=-442967.115455802 pbc="F F F"
Sc       0.00000000       0.00000000       0.00000000     -14.89015347      -0.00000000      -0.00000000
Hf       1.82500000       0.00000000       0.00000000      14.89015347      -0.00000000      -0.00000000
2
Properties=species:S:1:pos:R:3:forces:R:3 frame_id=20474 subset=dimers atomization_energy=-5.909013559605228 energy=-261119.487985945 pbc="F F F"
V        0.00000000       0.00000000       0.00000000       1.76599809      -0.00000000       0.00000000
La       2.31250000       0.00000000       0.00000000      -1.76599809       0.00000000       0.00000000
2
Properties=species:S:1:pos:R:3:forces:R:3 frame_id=22204 subset=dimers atomization_energy=-8.824454269895796 energy=-468871.840024999 pbc="F F F"
Mn       0.00000000       0.00000000       0.00000000       7.77077911       0.00000000       0.00000000
Ta       2.19430556       0.00000000       0.00000000      -7.77077911       0.00000000      -0.00000000
2
Properties=species:S:1:pos:R:3:forces:R:3 frame_id=23794 subset=dimers atomization_energy=-3.5848970798542723 energy=-573737.506393579 pbc="F F F"
Co       0.00000000       0.00000000       0.00000000      -3.32495004       0.00000000       0.00000000
Au       2.12750000       0.00000000       0.00000000       3.32495004       0.00000000       0.00000000
2
Properties=species:S:1:pos:R:3:forces:R:3 frame_id=25267 subset=dimers atomization_energy=-2.0025494559668005 energy=-546575.873862797 pbc="F F F"
Cu       0.00000000       0.00000000       0.00000000       1.76640626      -0.00000000      -0.00000000
Ir       3.29472222       0.00000000       0.00000000      -1.76640626      -0.00000000       0.00000000
2
Properties=species:S:1:pos:R:3:forces:R:3 frame_id=26675 subset=dimers atomization_energy=-3.931078426365275 energy=-490417.559229698 pbc="F F F"
Ga       0.00000000       0.00000000       0.00000000       0.75224421      -0.00000000       0.00000000
Ta       2.49944444       0.00000000       0.00000000      -0.75224421      -0.00000000       0.00000000
2
Properties=species:S:1:pos:R:3:forces:R:3 frame_id=28135 subset=dimers atomization_energy=-5.72241485316772 energy=-580200.690049506 pbc="F F F"
As       0.00000000       0.00000000       0.00000000       4.11727347       0.00000000       0.00000000
Pt       2.43222222       0.00000000       0.00000000      -4.11727347      -0.00000000      -0.00000000
2
Properties=species:S:1:pos:R:3:forces:R:3 frame_id=29534 subset=dimers atomization_energy=-0.2637345507973805 energy=-643003.028491741 pbc="F F F"
Br       0.00000000       0.00000000       0.00000000     -22.24278390      -0.00000000      -0.00000000
Tl       1.95791667       0.00000000       0.00000000      22.24278390       0.00000000       0.00000000
2
Properties=species:S:1:pos:R:3:forces:R:3 frame_id=31883 subset=dimers atomization_energy=14.607669377932325 energy=-298742.599285968 pbc="F F F"
Y        0.00000000       0.00000000       0.00000000     -50.48078717      -0.00000000       0.00000000
Xe       1.86666667       0.00000000       0.00000000      50.48078717       0.00000000      -0.00000000
2
Properties=species:S:1:pos:R:3:forces:R:3 frame_id=33468 subset=dimers atomization_energy=-1.2672769309720024 energy=-794388.549274754 pbc="F F F"
Nb       0.00000000       0.00000000       0.00000000       0.40575752       0.00000000       0.00000000
Fr       5.10972222       0.00000000       0.00000000      -0.40575752      -0.00000000       0.00000000
2
Properties=species:S:1:pos:R:3:forces:R:3 frame_id=35126 subset=dimers atomization_energy=-4.22001257201191 energy=-561826.115541535 pbc="F F F"
Ru       0.00000000       0.00000000       0.00000000       4.72015943       0.00000000      -0.00000000
Ta       3.08125000       0.00000000       0.00000000      -4.72015943       0.00000000       0.00000000
2
Properties=species:S:1:pos:R:3:forces:R:3 frame_id=36527 subset=dimers atomization_energy=-2.0256137321703136 energy=-1089670.89267025 pbc="F F F"
Pd       0.00000000       0.00000000       0.00000000       1.03746991       0.00000000       0.00000000
Cf       3.66527778       0.00000000       0.00000000      -1.03746991      -0.00000000      -0.00000000
2
Properties=species:S:1:pos:R:3:forces:R:3 frame_id=37927 subset=dimers atomization_energy=-2.546146042062901 energy=-599368.684738202 pbc="F F F"
In       0.00000000       0.00000000       0.00000000       1.74754932       0.00000000       0.00000000
Ta       3.34305556       0.00000000       0.00000000      -1.74754932       0.00000000      -0.00000000
2
Properties=species:S:1:pos:R:3:forces:R:3 frame_id=39404 subset=dimers atomization_energy=-4.436221899988595 energy=-513611.326211777 pbc="F F F"
Te       0.00000000       0.00000000       0.00000000     -11.00433355      -0.00000000       0.00000000
Tb       2.25597222       0.00000000       0.00000000      11.00433355       0.00000000       0.00000000
2
Properties=species:S:1:pos:R:3:forces:R:3 frame_id=40795 subset=dimers atomization_energy=-0.9146364800399169 energy=-450590.423257309 pbc="F F F"
Cs       0.00000000       0.00000000       0.00000000      -0.24693034      -0.00000000      -0.00000000
La       3.58111111       0.00000000       0.00000000       0.24693034      -0.00000000      -0.00000000
2
Properties=species:S:1:pos:R:3:forces:R:3 frame_id=42253 subset=dimers atomization_energy=-1.8916408250806853 energy=-571531.60168405 pbc="F F F"
Ce       0.00000000       0.00000000       0.00000000      -9.95969271      -0.00000000       0.00000000
Tb       1.97916667       0.00000000       0.00000000       9.95969271      -0.00000000       0.00000000
2
Properties=species:S:1:pos:R:3:forces:R:3 frame_id=44204 subset=dimers atomization_energy=-4.418746765004471 energy=-1044234.985166 pbc="F F F"
Sm       0.00000000       0.00000000       0.00000000      -0.11491909      -0.00000000      -0.00000000
Th       2.47180556       0.00000000       0.00000000       0.11491909       0.00000000       0.00000000
2
Properties=species:S:1:pos:R:3:forces:R:3 frame_id=46555 subset=dimers atomization_energy=0.03240345977246761 energy=-1370853.95652604 pbc="F F F"
Er       0.00000000       0.00000000       0.00000000      -1.01412535      -0.00000000      -0.00000000
Fm       2.89666667       0.00000000       0.00000000       1.01412535       0.00000000       0.00000000
2
Properties=species:S:1:pos:R:3:forces:R:3 frame_id=48033 subset=dimers atomization_energy=2.139621316920966 energy=-1147922.06012213 pbc="F F F"
Ta       0.00000000       0.00000000       0.00000000     -19.80920011       0.00000000      -0.00000000
Ra       2.10416667       0.00000000       0.00000000      19.80920011      -0.00000000       0.00000000
2
Properties=species:S:1:pos:R:3:forces:R:3 frame_id=49533 subset=dimers atomization_energy=8.539368523983285 energy=-1071317.1068031 pbc="F F F"
Au       0.00000000       0.00000000       0.00000000     -58.50413699      -0.00000000      -0.00000000
Au       1.78333333       0.00000000       0.00000000      58.50413699      -0.00000000      -0.00000000
2
Properties=species:S:1:pos:R:3:forces:R:3 frame_id=50958 subset=dimers atomization_energy=-1.8570961982477456 energy=-1599218.58079165 pbc="F F F"
At       0.00000000       0.00000000       0.00000000       1.12778121      -0.00000000       0.00000000
Cf       4.03541667       0.00000000       0.00000000      -1.12778121       0.00000000       0.00000000
3
Properties=species:S:1:pos:R:3:forces:R:3 frame_id=1585 subset=trimers atomization_energy=8.377298444975168 energy=-2823416.4984406 pbc="F F F"
Fm       0.00000000       0.00000000       0.00000000     -34.26972406     -19.11894488      -6.18072791
No       1.59291259       0.88901626       0.28797009      34.43065264      17.25506890       2.26375077
Th       1.50864442       1.93668181       2.48380575      -0.16092858       1.86387598       3.91697713
3
Properties=species:S:1:pos:R:3:forces:R:3 frame_id=20880 subset=trimers atomization_energy=-3.5969872743589804 energy=-757549.088187665 pbc="F F F"
Ca       0.00000000       0.00000000       0.00000000      -0.83755609      -1.05979221      -0.67534761
Al       0.55354857       1.81890519       1.91973639      -1.50039639       0.39652880       1.81348074
Ac       2.69155747       2.02475814       0.35110401       2.33795249       0.66326341      -1.13813313
3
Properties=species:S:1:pos:R:3:forces:R:3 frame_id=41047 subset=trimers atomization_energy=-6.403963482705876 energy=-592782.670538807 pbc="F F F"
As       0.00000000       0.00000000       0.00000000      -4.04031200      -1.77607497       1.76380864
Cl       1.66319563       1.01737641       0.16740608       4.67284808       2.75822499       0.15772592
Pt       0.64785115       1.26927886       2.79004241      -0.63253608      -0.98215002      -1.92153456
20
Lattice="5.32401991 0.0 0.0 0.0 7.3913813 0.0 0.0 0.0 5.18272624" Properties=species:S:1:pos:R:3:forces:R:3 frame_id=1051 subset=mc3d_ext atomization_energy=-177.18291826249333 energy=-422697.418523849 pbc="T T T"
Y        0.27916874       5.54353598       2.65624222       0.00768052      -0.00000000      -0.02844691
Y        2.94117870       5.54353598       5.11784713       0.00768022      -0.00000003       0.02844694
Y        5.04485117       1.84784533       2.52648401      -0.00768055       0.00000019       0.02844697
Y        2.38284122       1.84784533       0.06487911      -0.00768062       0.00000020      -0.02844679
Al       2.66200996       0.00000000       2.59136312      -0.00000006       0.00000007      -0.00000007
Al       2.66200996       3.69569065       2.59136312      -0.00000007       0.00000007      -0.00000003
Al       0.00000000       0.00000000      -0.00000000       0.00000015       0.00000012      -0.00000005
Al       0.00000000       3.69569065      -0.00000000       0.00000011       0.00000001      -0.00000008
O        5.21170274       5.54353598       0.43634284      -0.03718786      -0.00000009      -0.01212339
O        2.54969278       5.54353598       2.15502028      -0.03718777      -0.00000009       0.01212327
O        0.11231718       1.84784533       4.74638340       0.03718782      -0.00000005       0.01212323
O        2.77432713       1.84784533       3.02770596       0.03718791      -0.00000005      -0.01212342
O        1.56107876       7.06401153       4.11376303       0.00769818      -0.01353219      -0.01481523
O        1.56107876       4.02306043       4.11376303       0.00769818       0.01353209      -0.01481523
O        4.22308871       7.06401153       3.66032632       0.00769830      -0.01353218       0.01481525
O        4.22308871       4.02306043       3.66032632       0.00769830       0.01353208       0.01481525
O        3.76294116       3.36832088       1.06896320      -0.00769825      -0.01353213       0.01481532
O        3.76294116       0.32736978       1.06896320      -0.00769825       0.01353207       0.01481532
O        1.10093120       3.36832088       1.52239991      -0.00769812      -0.01353214      -0.01481518
O        1.10093120       0.32736978       1.52239991      -0.00769813       0.01353208      -0.01481518
36
Lattice="21.02573356 0.0 0.0 0.0 3.98582829 0.0 0.0 0.0 7.50629098" Properties=species:S:1:pos:R:3:forces:R:3 frame_id=3853 subset=mc3d_ext atomization_energy=-182.5301554184407 energy=-7357716.03531396 pbc="T T T"
Ca       2.95127885       2.98937122       2.78500041      -0.03176779       0.00000107       0.04714760
Ca      13.46414563       2.98937122       0.96814509      -0.03176776       0.00000105      -0.04714708
Ca      18.07445471       0.99645708       4.72129058       0.03176593       0.00000103      -0.04714718
Ca       7.56158793       0.99645708       6.53814590       0.03176588       0.00000104       0.04714761
Ga      10.26773140       2.98937122       6.54005608       0.01811529       0.00000105       0.03589582
Ga      20.78059818       2.98937122       4.71938040       0.01811534       0.00000107      -0.03589553
Ga      10.75800216       0.99645708       0.96623491      -0.01811718       0.00000107      -0.03589532
Ga       0.24513538       0.99645708       2.78691058      -0.01811723       0.00000106       0.03589601
Ga       6.17800590       2.98937122       4.24559797      -0.08468048       0.00000097       0.04627464
Ga      16.69087268       2.98937122       7.01383850      -0.08468004       0.00000103      -0.04627413
Ga      14.84772766       0.99645708       3.26069301       0.08467870       0.00000102      -0.04627371
Ga       4.33486088       0.99645708       0.49245248       0.08467819       0.00000096       0.04627460
Ga       6.31057579       2.98937122       1.23867967       0.00762230       0.00000104      -0.01000553
Ga      16.82344257       2.98937122       2.51446582       0.00762294       0.00000103       0.01000588
Ga      14.71515777       0.99645708       6.26761132      -0.00762437       0.00000102       0.01000610
Ga       4.20229098       0.99645708       4.99182516      -0.00762471       0.00000108      -0.01000572
Ga       2.49226869       2.98937122       6.37048669       0.04044601       0.00000120      -0.09667854
Ga      13.00513547       2.98937122       4.88894979       0.04044613       0.00000109       0.09667894
Ga      18.53346487       0.99645708       1.13580430      -0.04044783       0.00000096       0.09667899
Ga       8.02059809       0.99645708       2.61734119      -0.04044807       0.00000105      -0.09667833
Ga       0.33077352       2.98937122       0.92193920      -0.00935872       0.00000095      -0.06741866
Ga      10.84364030       2.98937122       2.83120630      -0.00935869       0.00000103       0.06741928
Ga      20.69496004       0.99645708       6.58435179       0.00935694       0.00000108       0.06741920
Ga      10.18209325       0.99645708       4.67508469       0.00935701       0.00000108      -0.06741858
Pt       8.71093127       2.98937122       4.24630227      -0.01207325       0.00000309       0.13197791
Pt      19.22379805       2.98937122       7.01313421      -0.01205105       0.00000107      -0.13202462
Pt      12.31480229       0.99645708       3.25998872       0.01207330      -0.00000109      -0.13205478
Pt       1.80193551       0.99645708       0.49315678       0.01206503       0.00000119       0.13202116
Pt       8.92246412       2.98937122       1.20166184       0.16371513      -0.00000684      -0.01233139
Pt      19.43533090       2.98937122       2.55148366       0.16373503      -0.00000059       0.01233621
Pt      12.10326944       0.99645708       6.30462915      -0.16371689      -0.00000059       0.01233144
Pt       1.59040266       0.99645708       4.95480733      -0.16373342      -0.00000413      -0.01229077
Pt       5.04133637       2.98937122       6.51418727      -0.08446757      -0.00000712      -0.02118944
Pt      15.55420315       2.98937122       4.74524921      -0.08448015      -0.00000449       0.02116852
Pt      15.98439719       0.99645708       0.99210371       0.08446754      -0.00000331       0.02119182
Pt       5.47153041       0.99645708       2.76104178       0.08448853      -0.00000224      -0.02114244
28
Lattice="6.68127338 0.0 0.0 -3.34063669 5.78615248 0.0 0.0 0.0 9.66360752" Properties=species:S:1:pos:R:3:forces:R:3 frame_id=6525 subset=mc3d_ext atomization_energy=-157.4008496014867 energy=-1292875.79724852 pbc="T T T"
Be      -1.14019591       5.08167276       2.41590188      -0.00067581      -0.01818058      -0.00000047
Be       0.49012305       2.25787748       7.24770565      -0.01678441       0.00714927      -0.00000068
Be       1.14019590       5.08167276       7.24770565       0.00068079      -0.01818058      -0.00000068
Be       1.63031896       4.23275472       2.41590188      -0.01541448       0.00864557      -0.00000047
Be      -1.63031897       4.23275472       7.24770565       0.01541937       0.00864556      -0.00000068
Be      -0.49012306       2.25787748       2.41590188       0.01678945       0.00714928      -0.00000047
Tl       3.34063669       1.92871750       4.83180376      -0.00003306       0.00064433       0.00001965
Tl       3.34063669       1.92871750       0.00000000      -0.00003051       0.00064358      -0.00000448
Zn      -0.00000000       0.00000000       4.83180376       0.00000241      -0.00028825      -0.00000101
Zn      -0.00000000       0.00000000       0.00000000       0.00000237      -0.00028815      -0.00000052
F        2.48333990       4.36271562       3.68080410       0.00697180      -0.00088770       0.01910152
F        2.48333990       4.36271562       1.15099967       0.00697188      -0.00088767      -0.01910276
F        5.01989251      -0.03072236       8.51260786       0.00311245       0.00601687       0.01888132
F        5.01989251      -0.03072236       5.98280343       0.00311241       0.00601683      -0.01888235
F        4.19793347       4.36271562       8.51260786      -0.00696692      -0.00088771       0.01910159
F        4.19793347       4.36271562       5.98280343      -0.00696686      -0.00088772      -0.01910262
F        5.87718929       1.45415923       3.68080410      -0.00422901      -0.00460075       0.01817119
F        5.87718929       1.45415923       1.15099967      -0.00422902      -0.00460083      -0.01817243
F        0.80408409       1.45415923       8.51260786       0.00423391      -0.00460081       0.01817128
F        0.80408409       1.45415923       5.98280343       0.00423388      -0.00460076      -0.01817231
F        1.66138087      -0.03072236       3.68080410      -0.00310754       0.00601683       0.01888124
F        1.66138087      -0.03072236       1.15099967      -0.00310760       0.00601688      -0.01888248
F        0.43352474       5.24867904       2.41590188       0.01918523       0.02329888      -0.00000056
F        1.42161507       3.53725640       7.24770565       0.03065065       0.00578121      -0.00000056
F       -0.43352475       5.24867904       7.24770565      -0.01918033       0.02329887      -0.00000056
F        0.98809032       2.78636952       2.41590188       0.01196747      -0.02810685      -0.00000056
F       -0.98809032       2.78636952       7.24770565      -0.01196269      -0.02810678      -0.00000056
F       -1.42161507       3.53725640       2.41590188      -0.03064583       0.00578121      -0.00000056
26
Lattice="6.78641936 0.0 0.0 0.0 12.50029437 0.0 0.0 0.0 5.31041729" Properties=species:S:1:pos:R:3:forces:R:3 frame_id=9309 subset=mc3d_ext atomization_energy=-165.09828299819492 energy=-1305122.01278673 pbc="T T T"
Ba       5.41899464       9.60061531       2.65520864       0.01350766       0.02132568      -0.00000196
Ba       2.02578496       9.14982625      -0.00000000       0.01351273      -0.02132339       0.00000122
Ba       1.36742473       2.89967906       2.65520864      -0.01350764      -0.02132392      -0.00000256
Ba       4.76063441       3.35046812      -0.00000000      -0.01351153       0.02132264       0.00000071
Mn       3.39320968       6.25014718       2.65520864      -0.00000003      -0.00000001       0.00000007
Mn       0.00000000      -0.00000000      -0.00000000       0.00000000      -0.00000010       0.00000007
Se       1.72953349      11.64530911       2.65520864      -0.02915043       0.13398773       0.00000021
Se       5.12274316       7.10513244      -0.00000000      -0.02914996      -0.13398803       0.00000008
Se       5.05688588       0.85498526       2.65520864       0.02915030      -0.13398781       0.00000024
Se       1.66367620       5.39516193      -0.00000000       0.02915012       0.13398797       0.00000009
Cl       1.29633557       7.43605447       2.65520864      -0.09491249       0.07504175       0.00000012
Cl       4.68954525      11.31438708      -0.00000000      -0.09491290      -0.07504221       0.00000013
Cl       5.49008379       5.06423990       2.65520864       0.09491243      -0.07504184       0.00000012
Cl       2.09687411       1.18590729      -0.00000000       0.09491278       0.07504211       0.00000010
O        0.66168284      11.18809856       1.36017745      -0.00654416       0.03161701      -0.03196028
O        0.66168284      11.18809856       3.95023984      -0.00654409       0.03161704       0.03196042
O        4.05489252       7.56234299       4.01538609      -0.00654501      -0.03161809      -0.03196193
O        4.05489252       7.56234299       1.29503119      -0.00654507      -0.03161807       0.03196224
O        6.12473653       1.31219581       1.36017745       0.00654403      -0.03161709      -0.03196028
O        6.12473653       1.31219581       3.95023984       0.00654395      -0.03161711       0.03196042
O        2.73152685       4.93795138       4.01538609       0.00654481       0.03161802      -0.03196186
O        2.73152685       4.93795138       1.29503119       0.00654486       0.03161799       0.03196217
O        2.77197060      10.32388428       2.65520864       0.02634113      -0.05752902       0.00000012
O        6.16518028       8.42655727      -0.00000000       0.02634109       0.05752907       0.00000012
O        4.01444877       2.17641009       2.65520864      -0.02634125       0.05752894       0.00000012
O        0.62123909       4.07373710      -0.00000000      -0.02634131      -0.05752927       0.00000012
14
Lattice="4.07688678 0.0 0.0 0.0 4.07688678 0.0 0.0 0.0 18.6882451" Properties=species:S:1:pos:R:3:forces:R:3 frame_id=14669 subset=mc3d_ext atomization_energy=-97.97481088200584 energy=-1523600.25721167 pbc="T T T"
La       2.03844339       0.00000000      15.24137423      -0.00000015       0.00000027      -0.00887693
La      -0.00000000       2.03844339      12.79099342      -0.00000011      -0.00000043       0.00888294
La       2.03844339       0.00000000       5.89725168      -0.00000013      -0.00000010      -0.00891759
La      -0.00000000       2.03844339       3.44687087      -0.00000002      -0.00000041       0.00892058
Cd      -0.00000000       0.00000000       0.00000000       0.00000003       0.00000021      -0.00000216
Cd       2.03844339       2.03844339       9.34412255      -0.00000066      -0.00000068      -0.00000823
Se       2.03844339      -0.00000000       1.72477928       0.00000014       0.00000013      -0.00035013
Se       0.00000000       2.03844339       7.61934327       0.00000013       0.00000020       0.00035033
Se       2.03844339       0.00000000      11.06890183       0.00000023       0.00000009      -0.00035567
Se       0.00000000       2.03844339      16.96346582       0.00000011       0.00000022       0.00035645
O        0.00000000       0.00000000      14.03285407       0.00000012       0.00000013       0.01985521
O        2.03844339       2.03844339      13.99951358       0.00000010       0.00000012      -0.01985500
O        2.03844339       2.03844339       4.68873152       0.00000010       0.00000012       0.01986274
O        0.00000000       0.00000000       4.65539103       0.00000012       0.00000013      -0.01986253
8
Lattice="4.02032588 0.0 0.0 0.0 4.02032588 0.0 0.0 0.0 7.86009079" Properties=species:S:1:pos:R:3:forces:R:3 frame_id=17346 subset=mc3d_ext atomization_energy=-78.92520934389904 energy=-2501338.29784083 pbc="T T T"
Th       2.01016294       0.00000000       5.22017477      -0.00002972       0.00000697       0.01930459
Th       0.00000000       2.01016294       2.63991602       0.00000420      -0.00003059      -0.01924428
P        2.01016294       0.00000000       1.20359999       0.00000452       0.00000424      -0.26265110
P        0.00000000       2.01016294       6.65649080       0.00000451       0.00000424       0.26263324
Os       0.00000000       0.00000000       0.00000000       0.00000410       0.00000483       0.00000854
Os       2.01016294       2.01016294       0.00000000       0.00000335       0.00000184      -0.00003386
O        0.00000000       0.00000000       3.93004539       0.00000452       0.00000424      -0.00001335
O        2.01016294       2.01016294       3.93004539       0.00000452       0.00000424      -0.00000379
12
Lattice="7.18653613 0.0 0.0 0.0 4.8338769 0.0 0.0 0.0 7.72383966" Properties=species:S:1:pos:R:3:forces:R:3 frame_id=19480 subset=mc3d_ext atomization_energy=-76.43752853572369 energy=-3987747.36999314 pbc="T T T"
Pr       7.09499445       3.62540767       5.35818713      -0.06391980       0.00000046       0.28840564
Pr       3.50172638       3.62540767       6.22757235      -0.06388342       0.00000112      -0.28838683
Pr       0.09154169       1.20846922       2.36565252       0.06392382      -0.00000199      -0.28840499
Pr       3.68480975       1.20846922       1.49626731       0.06389757      -0.00000137       0.28839291
Bi       5.88813907       3.62540767       0.71989745       0.15255113       0.00002007       0.20708306
Bi       2.29487101       3.62540767       3.14202238       0.15254895       0.00002088      -0.20706988
Bi       1.29839706       1.20846922       7.00394220      -0.15255345      -0.00001864      -0.20708650