2
Lattice="10.0 1.0 2.0 0.0 11.0 3.0 0.0 0.0 12.0" Properties=species:S:1:pos:R:3:forces:R:3 energy=-2.0 stress="0.0 1.0 2.0 3.0 4.0 5.0" pbc="T F T"
H 0.0 0.1 0.2 1.0 1.1 1.2
H 3.0 3.1 3.2 -1.0 -1.1 -1.2
