2
Properties=species:S:1:pos:R:3:magmom:R:3 energy=-1.5
H 0.0 0.0 0.0 0.1 0.0 0.0
O 1.0 0.0 0.0 0.0 0.1 0.0
2
Properties=species:S:1:pos:R:3:magmom:R:1 energy=-1.7
H 0.0 0.0 0.0 0.5
O 1.0 0.0 0.0 -0.5
