1
Lattice="15.0 0.0 0.0 0.0 15.0 0.0 0.0 0.0 15.0" Properties=species:S:1:pos:R:3:forces:R:3 energy=-1.0 stress="0.0 0.0 0.0 0.0 0.0 0.0" pbc="T T T"
H 0.0 0.0 0.0 0.0 0.0 0.0
