2
Lattice="4 0 0 0 4 0 0 0 4" Properties=species:S:1:pos:R:3 energy=-10.5 stress="1.0 1.5 2.0 0.1 0.2 0.3"
Si 0.000 0.000 0.000
Si 2.000 2.000 2.000
