3
Lattice="10 0 0 0 10 0 0 0 10" Properties=species:S:1:pos:R:3:forces:R:3 energy=-76.3
O 0.000 0.000 0.000 0.001 0.000 -0.002
H 0.758 0.000 0.504 -0.001 0.000 0.001
H -0.758 0.000 0.504 0.000 0.000 0.001
1
Lattice="10 0 0 0 10 0 0 0 10" Properties=species:S:1:pos:R:3:forces:R:3 energy=-13.6
H 0.000 0.000 0.000 0.000 0.000 0.000
2
Lattice="10 0 0 0 10 0 0 0 10" Properties=species:S:1:pos:R:3:forces:R:3 energy=-31.8
O 0.000 0.000 0.000 0.000 0.012 0.000
H 0.970 0.000 0.000 0.000 -0.012 0.000
